 Q-Chem 5.0, Q-Chem, Inc., Pleasanton, CA (2017)
 Q-Chem 5.0.0 for Intel X86 EM64T Linux

User input:
--------------------------------------------------------------
$comment
  Pair index in OpenMM: 2 and 3
$end

$molecule
  0  1
--
  0  1
C   32.0978022   18.6255181    3.2534775
C   31.6759276   17.6382661    4.0793228
H   31.4193344   19.2124259    2.7138042
H   33.1843901   18.7973762    3.0653360
H   32.3645806   17.0744908    4.6721673
H   30.6172776   17.4014461    4.1670075
--
  0  1
C   25.1950312    5.4835099   23.2523656
C   25.3026819    5.7128525   21.9405818
H   26.0881257    5.3210348   23.8717365
H   24.2439175    5.4128242   23.7472582
H   24.4005251    5.8669716   21.3527584
H   26.2846470    5.7342005   21.4722753
$end

$rem
	JOBTYPE      SP
	METHOD     	 BLYP			! Set the exchange-correlation functions
	BASIS        DZ*
	LRC_DFT		 TRUE			! Control the application of long-range-corrected DFT
	OMEGA		 410			! Set the range-separation parameter
	!GUI  =  2
	MAX_SCF_CYCLES	 200
	SCF_PRINT_FRGM   TRUE		! for printing out SCF results of each fragments
	SCF_FINAL_PRINT  2
	SYM_IGNORE       TRUE		! Necessary rem key for DC calculations.
	SCF_GUESS        FRAGMO		! Use MOs of each fragments.
	STS_DC               FOCK	! Use Frontier Molecular Orbital (FMO) approach
	SCF_CONVERGENCE      5		! 5 For SP calculations/8 For OPT, vibrational analysis and SSG calculation; see p. 1083 in Q-Chem Manual 5.0
	STS_TRANS_DONOR      2-2
	STS_TRANS_ACCEPTOR   2-2
$end
--------------------------------------------------------------

 Q-Chem 5.0, Q-Chem, Inc., Pleasanton, CA (2017)
 Q-Chem 5.0.0 for Intel X86 EM64T Linux

User input:
--------------------------------------------------------------
$molecule
0 1
 6	32.0978022000	18.6255181000	3.2534775000
 6	31.6759276000	17.6382661000	4.0793228000
 1	31.4193344000	19.2124259000	2.7138042000
 1	33.1843901000	18.7973762000	3.0653360000
 1	32.3645806000	17.0744908000	4.6721673000
 1	30.6172776000	17.4014461000	4.1670075000
$end

$rem
METHOD		BLYP
BASIS		DZ*
LRC_DFT		TRUE
OMEGA		410
MAX_SCF_CYCLES		200
SCF_PRINT_FRGM		TRUE
SCF_FINAL_PRINT		2
SYM_IGNORE		TRUE
SCF_CONVERGENCE		5
!required keywords
JOBTYPE		SP
SYM_IGNORE		TRUE
SUBSYSTEM		TRUE
SAVE_SUBSYSTEM		TRUE
$end
--------------------------------------------------------------

    7     -81.7489856591      9.57E-06 Convergence criterion met
 Total energy in the final basis set = -81.7489856591
 Total job time:  1.47s(wall), 1.35s(cpu)
        *  Thank you very much for using Q-Chem.  Have a nice day.  *
 Q-Chem 5.0, Q-Chem, Inc., Pleasanton, CA (2017)
 Q-Chem 5.0.0 for Intel X86 EM64T Linux

User input:
--------------------------------------------------------------
$molecule
0 1
 6	25.1950312000	5.4835099000	23.2523656000
 6	25.3026819000	5.7128525000	21.9405818000
 1	26.0881257000	5.3210348000	23.8717365000
 1	24.2439175000	5.4128242000	23.7472582000
 1	24.4005251000	5.8669716000	21.3527584000
 1	26.2846470000	5.7342005000	21.4722753000
$end

$rem
METHOD		BLYP
BASIS		DZ*
LRC_DFT		TRUE
OMEGA		410
MAX_SCF_CYCLES		200
SCF_PRINT_FRGM		TRUE
SCF_FINAL_PRINT		2
SYM_IGNORE		TRUE
SCF_CONVERGENCE		5
!required keywords
JOBTYPE		SP
SYM_IGNORE		TRUE
SUBSYSTEM		TRUE
SAVE_SUBSYSTEM		TRUE
$end
--------------------------------------------------------------

             Standard Nuclear Orientation (Angstroms)
    I     Atom           X                Y                Z
 ----------------------------------------------------------------
    1      C      25.1950312000     5.4835099000    23.2523656000
    2      C      25.3026819000     5.7128525000    21.9405818000
    3      H      26.0881257000     5.3210348000    23.8717365000
    4      H      24.2439175000     5.4128242000    23.7472582000
    5      H      24.4005251000     5.8669716000    21.3527584000
    6      H      26.2846470000     5.7342005000    21.4722753000
 ----------------------------------------------------------------

    7     -81.7513092432      7.08E-06 Convergence criterion met
 Total energy in the final basis set = -81.7513092432
 Total job time:  1.32s(wall), 1.30s(cpu)
        *  Thank you very much for using Q-Chem.  Have a nice day.  *
    2    -163.5002951473      5.12E-07 Convergence criterion met

                    Orbital Energies (a.u.)
 --------------------------------------------------------------

 Alpha MOs
 -- Occupied --
-10.327 -10.326 -10.326 -10.325  -1.072  -1.069  -0.891  -0.885
 -0.770  -0.767  -0.708  -0.707  -0.654  -0.651  -0.546  -0.542

          Ground-State Mulliken Net Atomic Charges

     Atom                 Charge (a.u.)
  ----------------------------------------
      1 C                    -0.382881
      2 C                    -0.383413
      3 H                     0.205935
      4 H                     0.176426
      5 H                     0.196990
      6 H                     0.186944
      7 C                    -0.375890
      8 C                    -0.378030
      9 H                     0.181058
     10 H                     0.193675
     11 H                     0.188821
     12 H                     0.190366
  ----------------------------------------
  Sum of atomic charges =    -0.000000

                    Cartesian Multipole Moments
 -----------------------------------------------------------------
    Charge (ESU x 10^10)
                -0.0000
    Dipole Moment (Debye)
         X      -0.0299      Y      -0.0641      Z      -0.0259
       Tot       0.0753
    Quadrupole Moments (Debye-Ang)
        XX     -24.0058     XY      -2.2634     YY     -28.6864
        XZ      -1.1855     YZ      -3.9604     ZZ     -24.1839

 Total job time:  4.07s(wall), 0.90s(cpu)
        *  Thank you very much for using Q-Chem.  Have a nice day.  *
