 Q-Chem 5.0, Q-Chem, Inc., Pleasanton, CA (2017)
 Q-Chem 5.0.0 for Intel X86 EM64T Linux

User input:
--------------------------------------------------------------
$comment
  Pair index in OpenMM: 1 and 2
$end

$molecule
  0  1
--
  0  1
C   40.1075220    2.6657623   20.2107859
C   40.6941605    3.4484723   19.2591572
H   40.6424999    1.8863696   20.7288599
H   39.0236688    2.7841285   20.4227638
H   40.1289940    4.1744831   18.7380779
H   41.7354774    3.3154142   19.0618205
--
  0  1
C   32.0978022   18.6255181    3.2534775
C   31.6759276   17.6382661    4.0793228
H   31.4193344   19.2124259    2.7138042
H   33.1843901   18.7973762    3.0653360
H   32.3645806   17.0744908    4.6721673
H   30.6172776   17.4014461    4.1670075
$end

$rem
	JOBTYPE      SP
	METHOD     	 BLYP			! Set the exchange-correlation functions
	BASIS        DZ*
	LRC_DFT		 TRUE			! Control the application of long-range-corrected DFT
	OMEGA		 410			! Set the range-separation parameter
	!GUI  =  2
	MAX_SCF_CYCLES	 200
	SCF_PRINT_FRGM   TRUE		! for printing out SCF results of each fragments
	SCF_FINAL_PRINT  2
	SYM_IGNORE       TRUE		! Necessary rem key for DC calculations.
	SCF_GUESS        FRAGMO		! Use MOs of each fragments.
	STS_DC               FOCK	! Use Frontier Molecular Orbital (FMO) approach
	SCF_CONVERGENCE      5		! 5 For SP calculations/8 For OPT, vibrational analysis and SSG calculation; see p. 1083 in Q-Chem Manual 5.0
	STS_TRANS_DONOR      2-2
	STS_TRANS_ACCEPTOR   2-2
$end
--------------------------------------------------------------

 Q-Chem 5.0, Q-Chem, Inc., Pleasanton, CA (2017)
 Q-Chem 5.0.0 for Intel X86 EM64T Linux

User input:
--------------------------------------------------------------
$molecule
0 1
 6	40.1075220000	2.6657623000	20.2107859000
 6	40.6941605000	3.4484723000	19.2591572000
 1	40.6424999000	1.8863696000	20.7288599000
 1	39.0236688000	2.7841285000	20.4227638000
 1	40.1289940000	4.1744831000	18.7380779000
 1	41.7354774000	3.3154142000	19.0618205000
$end

$rem
METHOD		BLYP
BASIS		DZ*
LRC_DFT		TRUE
OMEGA		410
MAX_SCF_CYCLES		200
SCF_PRINT_FRGM		TRUE
SCF_FINAL_PRINT		2
SYM_IGNORE		TRUE
SCF_CONVERGENCE		5
!required keywords
JOBTYPE		SP
SYM_IGNORE		TRUE
SUBSYSTEM		TRUE
SAVE_SUBSYSTEM		TRUE
$end
--------------------------------------------------------------

    7     -81.7487963115      6.87E-06 Convergence criterion met
 Total energy in the final basis set = -81.7487963115
 Total job time:  1.31s(wall), 1.28s(cpu)
        *  Thank you very much for using Q-Chem.  Have a nice day.  *
 Q-Chem 5.0, Q-Chem, Inc., Pleasanton, CA (2017)
 Q-Chem 5.0.0 for Intel X86 EM64T Linux

User input:
--------------------------------------------------------------
$molecule
0 1
 6	32.0978022000	18.6255181000	3.2534775000
 6	31.6759276000	17.6382661000	4.0793228000
 1	31.4193344000	19.2124259000	2.7138042000
 1	33.1843901000	18.7973762000	3.0653360000
 1	32.3645806000	17.0744908000	4.6721673000
 1	30.6172776000	17.4014461000	4.1670075000
$end

$rem
METHOD		BLYP
BASIS		DZ*
LRC_DFT		TRUE
OMEGA		410
MAX_SCF_CYCLES		200
SCF_PRINT_FRGM		TRUE
SCF_FINAL_PRINT		2
SYM_IGNORE		TRUE
SCF_CONVERGENCE		5
!required keywords
JOBTYPE		SP
SYM_IGNORE		TRUE
SUBSYSTEM		TRUE
SAVE_SUBSYSTEM		TRUE
$end
--------------------------------------------------------------

             Standard Nuclear Orientation (Angstroms)
    I     Atom           X                Y                Z
 ----------------------------------------------------------------
    1      C      32.0978022000    18.6255181000     3.2534775000
    2      C      31.6759276000    17.6382661000     4.0793228000
    3      H      31.4193344000    19.2124259000     2.7138042000
    4      H      33.1843901000    18.7973762000     3.0653360000
    5      H      32.3645806000    17.0744908000     4.6721673000
    6      H      30.6172776000    17.4014461000     4.1670075000
 ----------------------------------------------------------------

    7     -81.7489856591      9.57E-06 Convergence criterion met
 Total energy in the final basis set = -81.7489856591
 Total job time:  1.29s(wall), 1.27s(cpu)
        *  Thank you very much for using Q-Chem.  Have a nice day.  *
    2    -163.4977822313      5.55E-07 Convergence criterion met

                    Orbital Energies (a.u.)
 --------------------------------------------------------------

 Alpha MOs
 -- Occupied --
-10.329 -10.327 -10.326 -10.324  -1.069  -1.068  -0.891  -0.890
 -0.771  -0.767  -0.708  -0.703  -0.657  -0.654  -0.542  -0.541

          Ground-State Mulliken Net Atomic Charges

     Atom                 Charge (a.u.)
  ----------------------------------------
      1 C                    -0.371170
      2 C                    -0.402466
      3 H                     0.194083
      4 H                     0.176059
      5 H                     0.206162
      6 H                     0.197332
      7 C                    -0.382882
      8 C                    -0.383412
      9 H                     0.205937
     10 H                     0.176426
     11 H                     0.196987
     12 H                     0.186945
  ----------------------------------------
  Sum of atomic charges =     0.000000

                    Cartesian Multipole Moments
 -----------------------------------------------------------------
    Charge (ESU x 10^10)
                -0.0000
    Dipole Moment (Debye)
         X      -0.0177      Y      -0.0567      Z      -0.0669
       Tot       0.0894
    Quadrupole Moments (Debye-Ang)
        XX     -23.6149     XY      -2.8741     YY     -26.5718
        XZ      -2.8601     YZ      -4.9874     ZZ     -27.5061

 Total job time:  3.69s(wall), 0.92s(cpu)
        *  Thank you very much for using Q-Chem.  Have a nice day.  *
